  48
   1   1
    24.844839353220252     0.000000000000003     0.000000000000001
     0.000000000000003    26.653259424345702     0.000000000000008
     0.000000000000004     0.000000000000012    24.837345488749627
   1   2
    -1.070513569786280     0.000000000000000     1.081817216647778
    -0.000000000000000     0.672547657130739     0.000000000000000
    -1.081496308608033     0.000000000000000    -0.274575761937106
   1   3
    -0.199044831200675    -0.000000000000000     0.000000000000000
    -0.000000000000000    -0.116114277947454     0.000000000000000
    -0.000000000000000    -0.000000000000000     0.104018527354712
   1   4
    -1.070513569786280     0.000000000000000    -1.081817216647778
     0.000000000000000     0.672547657130739    -0.000000000000000
     1.081496308608032     0.000000000000000    -0.274575761937106
   1   5
    -0.392554108293561    -0.000000000000000     0.000000000000000
    -0.000000000000000    -0.062027459472009     0.000000000000000
    -0.000000000000000    -0.000000000000000     0.032608491364174
   1   6
     0.025557595567700    -0.000000000000000     0.022902736392868
    -0.000000000000000    -0.116506291699869    -0.000000000000000
    -0.022908700578979    -0.000000000000000    -0.123615176857210
   1   7
     0.009013837268289    -0.000000000000000    -0.000000000000000
     0.000000000000000    -0.013645858600300    -0.000000000000000
     0.000000000000000    -0.000000000000000    -0.006555039071016
   1   8
     0.025557595567700    -0.000000000000000    -0.022902736392868
     0.000000000000000    -0.116506291699869    -0.000000000000000
     0.022908700578979    -0.000000000000000    -0.123615176857210
   1   9
    -0.470505084139099     0.000000000000000    -1.425159753940620
     0.000000000000000     0.665355524520958    -0.000000000000000
     0.753300207995735     0.000000000000000    -0.864766236144211
   1  10
    -0.041252665150512    -0.000000000000000     0.090469907825521
     0.000000000000000    -0.030634750522322    -0.000000000000000
     0.104116168263672    -0.000000000000000    -0.147350252933970
   1  11
    -0.041252665150512    -0.000000000000000    -0.090469907825521
    -0.000000000000000    -0.030634750522322    -0.000000000000000
    -0.104116168263672    -0.000000000000000    -0.147350252933970
   1  12
    -0.470505084139100     0.000000000000000     1.425159753940621
    -0.000000000000000     0.665355524520957    -0.000000000000000
    -0.753300207995735     0.000000000000000    -0.864766236144211
   1  13
    -0.470758762661923     0.000000000000000    -0.753086974754963
     0.000000000000000     0.665354221067084    -0.000000000000000
     1.425244700829148     0.000000000000000    -0.864581671011421
   1  14
    -0.041210385396708    -0.000000000000000    -0.104109253281306
    -0.000000000000000    -0.030603793492830    -0.000000000000000
    -0.090452394723271    -0.000000000000000    -0.147353229790951
   1  15
    -0.041210385396708    -0.000000000000000     0.104109253281306
     0.000000000000000    -0.030603793492830    -0.000000000000000
     0.090452394723271    -0.000000000000000    -0.147353229790951
   1  16
    -0.470758762661923     0.000000000000000     0.753086974754963
    -0.000000000000000     0.665354221067084    -0.000000000000000
    -1.425244700829149     0.000000000000000    -0.864581671011421
   1  17
    -1.645957002866645    -0.000000000000001    -0.000000000000001
    -0.000000000000000    -4.631776414677160    -3.517434798252871
    -0.000000000000000    -3.383351564135327    -5.135484334619548
   1  18
    -0.042685020712307    -0.047588440940051    -0.273168715916830
    -0.183689237104521    -0.223101446010110    -0.105018138055198
    -0.274192938129417    -0.027452575073983     0.274298616552223
   1  19
     0.012071900924519    -0.000000000000000     0.000000000000000
     0.000000000000000     0.013486511364280     0.003353786816178
     0.000000000000000     0.024557283974769     0.003648435915276
   1  20
    -0.042685020712307     0.047588440940051     0.273168715916830
     0.183689237104521    -0.223101446010110    -0.105018138055198
     0.274192938129417    -0.027452575073983     0.274298616552223
   1  21
     0.431372078353073    -0.000000000000000     0.000000000000000
     0.000000000000000    -0.226916981360929     0.212790148281356
     0.000000000000000     0.047875004702866    -0.193685031835136
   1  22
    -0.008452083710126    -0.012101290509480     0.068214515711930
    -0.028237535917463    -0.086256060070191     0.047244826162397
    -0.056425431007898     0.005163656118340    -0.083739879917987
   1  23
     0.017293966126054    -0.000000000000000     0.000000000000000
     0.000000000000000    -0.010496062315304    -0.002757130805644
     0.000000000000000     0.006858678483025     0.008614428730112
   1  24
    -0.008452083710126     0.012101290509480    -0.068214515711930
     0.028237535917463    -0.086256060070191     0.047244826162397
     0.056425431007898     0.005163656118340    -0.083739879917987
   1  25
    -0.061337352831000    -0.001207035410426     0.028562809531676
    -0.039509153287421    -0.079975693444831    -0.031493237829670
    -0.084941934766705    -0.019951490854571    -0.021020480196261
   1  26
     0.013034538733688     0.018837177139896     0.009483555020915
    -0.008256402697387     0.008732163361167    -0.014804954957193
     0.018195145236088     0.002730968593892    -0.006553848328224
   1  27
     0.013034538733688    -0.018837177139896    -0.009483555020915
     0.008256402697387     0.008732163361167    -0.014804954957193
    -0.018195145236088     0.002730968593892    -0.006553848328224
   1  28
    -0.061337352830999     0.001207035410426    -0.028562809531676
     0.039509153287421    -0.079975693444831    -0.031493237829670
     0.084941934766705    -0.019951490854571    -0.021020480196261
   1  29
    -4.264484721209212    -2.928013711563435     1.512635533347370
    -3.046028485068923    -4.632993840594884     1.759295155055805
     1.512297227195011     1.690564819042544    -2.517149887555125
   1  30
    -0.074689247521594    -0.008007115081678    -0.086428324286596
    -0.053235988959603    -0.086677890329960    -0.003123564275795
     0.035310286759657     0.001019573515814    -0.018115663154709
   1  31
    -0.074689247521594     0.008007115081678     0.086428324286596
     0.053235988959603    -0.086677890329960    -0.003123564275795
    -0.035310286759657     0.001019573515814    -0.018115663154709
   1  32
    -4.264484721209212     2.928013711563434    -1.512635533347370
     3.046028485068922    -4.632993840594884     1.759295155055805
    -1.512297227195012     1.690564819042546    -2.517149887555125
   1  33
    -1.645957002866645    -0.000000000000000     0.000000000000000
    -0.000000000000000    -4.631776414677158     3.517434798252868
    -0.000000000000000     3.383351564135321    -5.135484334619544
   1  34
    -0.042685020712307     0.047588440940051    -0.273168715916830
     0.183689237104521    -0.223101446010110     0.105018138055198
    -0.274192938129416     0.027452575073983     0.274298616552223
   1  35
     0.012071900924519     0.000000000000000    -0.000000000000000
     0.000000000000000     0.013486511364280    -0.003353786816178
     0.000000000000000    -0.024557283974769     0.003648435915276
   1  36
    -0.042685020712307    -0.047588440940051     0.273168715916830
    -0.183689237104521    -0.223101446010110     0.105018138055198
     0.274192938129416     0.027452575073983     0.274298616552224
   1  37
     0.431372078353073    -0.000000000000000    -0.000000000000000
     0.000000000000000    -0.226916981360929    -0.212790148281356
     0.000000000000000    -0.047875004702866    -0.193685031835136
   1  38
    -0.008452083710126     0.012101290509480     0.068214515711930
     0.028237535917463    -0.086256060070191    -0.047244826162397
    -0.056425431007898    -0.005163656118340    -0.083739879917987
   1  39
     0.017293966126054     0.000000000000000     0.000000000000000
     0.000000000000000    -0.010496062315304     0.002757130805644
     0.000000000000000    -0.006858678483025     0.008614428730112
   1  40
    -0.008452083710126    -0.012101290509480    -0.068214515711930
    -0.028237535917463    -0.086256060070191    -0.047244826162397
     0.056425431007898    -0.005163656118340    -0.083739879917987
   1  41
    -0.061337352831000     0.001207035410426     0.028562809531676
     0.039509153287421    -0.079975693444831     0.031493237829670
    -0.084941934766705     0.019951490854571    -0.021020480196261
   1  42
     0.013034538733688    -0.018837177139896     0.009483555020915
     0.008256402697387     0.008732163361167     0.014804954957193
     0.018195145236088    -0.002730968593892    -0.006553848328224
   1  43
     0.013034538733688     0.018837177139896    -0.009483555020915
    -0.008256402697387     0.008732163361167     0.014804954957193
    -0.018195145236088    -0.002730968593892    -0.006553848328224
   1  44
    -0.061337352831000    -0.001207035410426    -0.028562809531676
    -0.039509153287421    -0.079975693444831     0.031493237829670
     0.084941934766705     0.019951490854571    -0.021020480196261
   1  45
    -4.264484721209211     2.928013711563434     1.512635533347370
     3.046028485068923    -4.632993840594885    -1.759295155055807
     1.512297227195014    -1.690564819042549    -2.517149887555127
   1  46
    -0.074689247521594     0.008007115081678    -0.086428324286596
     0.053235988959603    -0.086677890329960     0.003123564275795
     0.035310286759658    -0.001019573515814    -0.018115663154709
   1  47
    -0.074689247521594    -0.008007115081678     0.086428324286596
    -0.053235988959603    -0.086677890329960     0.003123564275795
    -0.035310286759658    -0.001019573515814    -0.018115663154709
   1  48
    -4.264484721209212    -2.928013711563435    -1.512635533347371
    -3.046028485068924    -4.632993840594886    -1.759295155055807
    -1.512297227195015    -1.690564819042550    -2.517149887555127
   2   1
    -1.070513569786280     0.000000000000000    -1.081817216647777
     0.000000000000000     0.672547657130739    -0.000000000000000
     1.081496308608032     0.000000000000000    -0.274575761937106
   2   2
    24.844839353220252     0.000000000000003     0.000000000000001
     0.000000000000003    26.653259424345702     0.000000000000008
     0.000000000000004     0.000000000000012    24.837345488749619
   2   3
    -1.070513569786280     0.000000000000000     1.081817216647777
    -0.000000000000000     0.672547657130739     0.000000000000000
    -1.081496308608033     0.000000000000000    -0.274575761937106
   2   4
    -0.199044831200675    -0.000000000000000     0.000000000000000
    -0.000000000000000    -0.116114277947454     0.000000000000000
    -0.000000000000000    -0.000000000000000     0.104018527354712
   2   5
     0.025557595567700    -0.000000000000000    -0.022902736392868
     0.000000000000000    -0.116506291699869    -0.000000000000000
     0.022908700578979    -0.000000000000000    -0.123615176857210
   2   6
    -0.392554108293561    -0.000000000000000     0.000000000000000
    -0.000000000000000    -0.062027459472009     0.000000000000000
    -0.000000000000000    -0.000000000000000     0.032608491364174
   2   7
     0.025557595567700    -0.000000000000000     0.022902736392868
    -0.000000000000000    -0.116506291699869    -0.000000000000000
    -0.022908700578979    -0.000000000000000    -0.123615176857210
   2   8
     0.009013837268289    -0.000000000000000    -0.000000000000000
     0.000000000000000    -0.013645858600300    -0.000000000000000
     0.000000000000000    -0.000000000000000    -0.006555039071016
   2   9
    -0.470505084139100     0.000000000000000     1.425159753940620
    -0.000000000000000     0.665355524520957    -0.000000000000000
    -0.753300207995734     0.000000000000000    -0.864766236144210
   2  10
    -0.470505084139099     0.000000000000000    -1.425159753940620
     0.000000000000000     0.665355524520958    -0.000000000000000
     0.753300207995734     0.000000000000000    -0.864766236144211
   2  11
    -0.041252665150512    -0.000000000000000     0.090469907825521
     0.000000000000000    -0.030634750522322    -0.000000000000000
     0.104116168263672    -0.000000000000000    -0.147350252933970
   2  12
    -0.041252665150512    -0.000000000000000    -0.090469907825521
    -0.000000000000000    -0.030634750522322    -0.000000000000000
    -0.104116168263672    -0.000000000000000    -0.147350252933970
   2  13
    -0.470758762661923     0.000000000000000     0.753086974754963
    -0.000000000000000     0.665354221067084    -0.000000000000000
    -1.425244700829148     0.000000000000000    -0.864581671011421
   2  14
    -0.470758762661923     0.000000000000000    -0.753086974754963
     0.000000000000000     0.665354221067084    -0.000000000000000
     1.425244700829148     0.000000000000000    -0.864581671011421
   2  15
    -0.041210385396708    -0.000000000000000    -0.104109253281306
    -0.000000000000000    -0.030603793492830    -0.000000000000000
    -0.090452394723271    -0.000000000000000    -0.147353229790951
   2  16
    -0.041210385396708    -0.000000000000000     0.104109253281306
     0.000000000000000    -0.030603793492830    -0.000000000000000
     0.090452394723271    -0.000000000000000    -0.147353229790951
   2  17
    -0.042685020712307     0.047588440940051     0.273168715916830
     0.183689237104521    -0.223101446010110    -0.105018138055198
     0.274192938129416    -0.027452575073983     0.274298616552223
   2  18
    -1.645957002866645    -0.000000000000001    -0.000000000000001
    -0.000000000000000    -4.631776414677160    -3.517434798252871
    -0.000000000000000    -3.383351564135327    -5.135484334619547
   2  19
    -0.042685020712307    -0.047588440940051    -0.273168715916830
    -0.183689237104521    -0.223101446010110    -0.105018138055198
    -0.274192938129417    -0.027452575073983     0.274298616552223
   2  20
     0.012071900924519    -0.000000000000000     0.000000000000000
     0.000000000000000     0.013486511364280     0.003353786816178
     0.000000000000000     0.024557283974769     0.003648435915276
   2  21
    -0.008452083710126     0.012101290509480    -0.068214515711930
     0.028237535917463    -0.086256060070191     0.047244826162397
     0.056425431007898     0.005163656118340    -0.083739879917987
   2  22
     0.431372078353073    -0.000000000000000     0.000000000000000
     0.000000000000000    -0.226916981360929     0.212790148281356
     0.000000000000000     0.047875004702866    -0.193685031835136
   2  23
    -0.008452083710126    -0.012101290509480     0.068214515711930
    -0.028237535917463    -0.086256060070191     0.047244826162397
    -0.056425431007898     0.005163656118340    -0.083739879917987
   2  24
     0.017293966126054    -0.000000000000000     0.000000000000000
     0.000000000000000    -0.010496062315304    -0.002757130805644
     0.000000000000000     0.006858678483025     0.008614428730112
   2  25
    -0.061337352830999     0.001207035410426    -0.028562809531676
     0.039509153287421    -0.079975693444831    -0.031493237829670
     0.084941934766705    -0.019951490854571    -0.021020480196261
   2  26
    -0.061337352831000    -0.001207035410426     0.028562809531676
    -0.039509153287421    -0.079975693444831    -0.031493237829670
    -0.084941934766705    -0.019951490854571    -0.021020480196261
   2  27
     0.013034538733688     0.018837177139896     0.009483555020915
    -0.008256402697387     0.008732163361167    -0.014804954957193
     0.018195145236088     0.002730968593892    -0.006553848328224
   2  28
     0.013034538733688    -0.018837177139896    -0.009483555020915
     0.008256402697387     0.008732163361167    -0.014804954957193
    -0.018195145236088     0.002730968593892    -0.006553848328224
   2  29
    -4.264484721209212     2.928013711563434    -1.512635533347370
     3.046028485068922    -4.632993840594884     1.759295155055804
    -1.512297227195012     1.690564819042545    -2.517149887555125
   2  30
    -4.264484721209212    -2.928013711563435     1.512635533347370
    -3.046028485068923    -4.632993840594884     1.759295155055805
     1.512297227195011     1.690564819042544    -2.517149887555124
   2  31
    -0.074689247521594    -0.008007115081678    -0.086428324286596
    -0.053235988959603    -0.086677890329960    -0.003123564275795
     0.035310286759657     0.001019573515814    -0.018115663154709
   2  32
    -0.074689247521594     0.008007115081678     0.086428324286596
     0.053235988959603    -0.086677890329960    -0.003123564275795
    -0.035310286759657     0.001019573515814    -0.018115663154709
   2  33
    -0.042685020712307    -0.047588440940051     0.273168715916830
    -0.183689237104521    -0.223101446010110     0.105018138055198
     0.274192938129416     0.027452575073983     0.274298616552224
   2  34
    -1.645957002866645    -0.000000000000000     0.000000000000000
    -0.000000000000000    -4.631776414677158     3.517434798252868
    -0.000000000000000     3.383351564135321    -5.135484334619544
   2  35
    -0.042685020712307     0.047588440940051    -0.273168715916830
     0.183689237104521    -0.223101446010110     0.105018138055198
    -0.274192938129416     0.027452575073983     0.274298616552223
   2  36
     0.012071900924519     0.000000000000000    -0.000000000000000
     0.000000000000000     0.013486511364280    -0.003353786816178
     0.000000000000000    -0.024557283974769     0.003648435915276
   2  37
    -0.008452083710126    -0.012101290509480    -0.068214515711930
    -0.028237535917463    -0.086256060070191    -0.047244826162397
     0.056425431007898    -0.005163656118340    -0.083739879917987
   2  38
     0.431372078353073    -0.000000000000000    -0.000000000000000
     0.000000000000000    -0.226916981360929    -0.212790148281356
     0.000000000000000    -0.047875004702866    -0.193685031835136
   2  39
    -0.008452083710126     0.012101290509480     0.068214515711930
     0.028237535917463    -0.086256060070191    -0.047244826162397
    -0.056425431007898    -0.005163656118340    -0.083739879917987
   2  40
     0.017293966126054     0.000000000000000     0.000000000000000
     0.000000000000000    -0.010496062315304     0.002757130805644
     0.000000000000000    -0.006858678483025     0.008614428730112
   2  41
    -0.061337352831000    -0.001207035410426    -0.028562809531676
    -0.039509153287421    -0.079975693444831     0.031493237829670
     0.084941934766705     0.019951490854571    -0.021020480196261
   2  42
    -0.061337352831000     0.001207035410426     0.028562809531676
     0.039509153287421    -0.079975693444831     0.031493237829670
    -0.084941934766705     0.019951490854571    -0.021020480196261
   2  43
     0.013034538733688    -0.018837177139896     0.009483555020915
     0.008256402697387     0.008732163361167     0.014804954957193
     0.018195145236088    -0.002730968593892    -0.006553848328224
   2  44
     0.013034538733688     0.018837177139896    -0.009483555020915
    -0.008256402697387     0.008732163361167     0.014804954957193
    -0.018195145236088    -0.002730968593892    -0.006553848328224
   2  45
    -4.264484721209212    -2.928013711563435    -1.512635533347370
    -3.046028485068924    -4.632993840594886    -1.759295155055806
    -1.512297227195015    -1.690564819042550    -2.517149887555127
   2  46
    -4.264484721209211     2.928013711563434     1.512635533347370
     3.046028485068923    -4.632993840594885    -1.759295155055806
     1.512297227195014    -1.690564819042548    -2.517149887555126
   2  47
    -0.074689247521594     0.008007115081678    -0.086428324286596
     0.053235988959603    -0.086677890329960     0.003123564275795
     0.035310286759658    -0.001019573515814    -0.018115663154709
   2  48
    -0.074689247521594    -0.008007115081678     0.086428324286596
    -0.053235988959603    -0.086677890329960     0.003123564275795
    -0.035310286759658    -0.001019573515814    -0.018115663154709
   3   1
    -0.199044831200675    -0.000000000000000    -0.000000000000000
    -0.000000000000000    -0.116114277947454    -0.000000000000000
     0.000000000000000     0.000000000000000     0.104018527354712
   3   2
    -1.070513569786280     0.000000000000000    -1.081817216647777
    -0.000000000000000     0.672547657130739    -0.000000000000000
     1.081496308608033    -0.000000000000000    -0.274575761937106
   3   3
    24.844839353220252     0.000000000000003    -0.000000000000001
     0.000000000000003    26.653259424345702    -0.000000000000008
    -0.000000000000004    -0.000000000000012    24.837345488749619
   3   4
    -1.070513569786280     0.000000000000000     1.081817216647777
     0.000000000000000     0.672547657130739     0.000000000000000
    -1.081496308608032    -0.000000000000000    -0.274575761937106
   3   5
     0.009013837268289    -0.000000000000000     0.000000000000000
     0.000000000000000    -0.013645858600300     0.000000000000000
    -0.000000000000000     0.000000000000000    -0.006555039071016
   3   6
     0.025557595567700    -0.000000000000000    -0.022902736392868
    -0.000000000000000    -0.116506291699869     0.000000000000000
     0.022908700578979     0.000000000000000    -0.123615176857210
   3   7
    -0.392554108293561    -0.000000000000000    -0.000000000000000
    -0.000000000000000    -0.062027459472009    -0.000000000000000
     0.000000000000000     0.000000000000000     0.032608491364174
   3   8
     0.025557595567700    -0.000000000000000     0.022902736392868
     0.000000000000000    -0.116506291699869     0.000000000000000
    -0.022908700578979     0.000000000000000    -0.123615176857210
   3   9
    -0.041252665150512    -0.000000000000000    -0.090469907825521
     0.000000000000000    -0.030634750522322     0.000000000000000
    -0.104116168263672     0.000000000000000    -0.147350252933970
   3  10
    -0.470505084139099     0.000000000000000     1.425159753940620
     0.000000000000000     0.665355524520958     0.000000000000000
    -0.753300207995734    -0.000000000000000    -0.864766236144211
   3  11
    -0.470505084139100     0.000000000000000    -1.425159753940620
    -0.000000000000000     0.665355524520957     0.000000000000000
     0.753300207995734    -0.000000000000000    -0.864766236144210
   3  12
    -0.041252665150512    -0.000000000000000     0.090469907825521
    -0.000000000000000    -0.030634750522322     0.000000000000000
     0.104116168263672     0.000000000000000    -0.147350252933970
   3  13
    -0.041210385396708    -0.000000000000000     0.104109253281306
    -0.000000000000000    -0.030603793492830     0.000000000000000
     0.090452394723271     0.000000000000000    -0.147353229790951
   3  14
    -0.470758762661923     0.000000000000000     0.753086974754963
     0.000000000000000     0.665354221067084     0.000000000000000
    -1.425244700829148    -0.000000000000000    -0.864581671011421
   3  15
    -0.470758762661923     0.000000000000000    -0.753086974754963
    -0.000000000000000     0.665354221067084     0.000000000000000
     1.425244700829148    -0.000000000000000    -0.864581671011421
   3  16
    -0.041210385396708    -0.000000000000000    -0.104109253281306
     0.000000000000000    -0.030603793492830     0.000000000000000
    -0.090452394723271     0.000000000000000    -0.147353229790951
   3  17
     0.012071900924519     0.000000000000000     0.000000000000000
     0.000000000000000     0.013486511364280     0.003353786816178
    -0.000000000000000     0.024557283974769     0.003648435915276
   3  18
    -0.042685020712307     0.047588440940051     0.273168715916830
     0.183689237104521    -0.223101446010110    -0.105018138055198
     0.274192938129416    -0.027452575073983     0.274298616552223
   3  19
    -1.645957002866645    -0.000000000000000    -0.000000000000000
    -0.000000000000000    -4.631776414677158    -3.517434798252868
     0.000000000000000    -3.383351564135321    -5.135484334619544
   3  20
    -0.042685020712307    -0.047588440940051    -0.273168715916830
    -0.183689237104521    -0.223101446010110    -0.105018138055198
    -0.274192938129416    -0.027452575073983     0.274298616552224
   3  21
     0.017293966126054     0.000000000000000    -0.000000000000000
     0.000000000000000    -0.010496062315304    -0.002757130805644
    -0.000000000000000     0.006858678483025     0.008614428730112
   3  22
    -0.008452083710126     0.012101290509480    -0.068214515711930
     0.028237535917463    -0.086256060070191     0.047244826162397
     0.056425431007898     0.005163656118340    -0.083739879917987
   3  23
     0.431372078353073    -0.000000000000000     0.000000000000000
     0.000000000000000    -0.226916981360929     0.212790148281356
    -0.000000000000000     0.047875004702866    -0.193685031835136
   3  24
    -0.008452083710126    -0.012101290509480     0.068214515711930
    -0.028237535917463    -0.086256060070191     0.047244826162397
    -0.056425431007898     0.005163656118340    -0.083739879917987
   3  25
     0.013034538733688    -0.018837177139896    -0.009483555020915
     0.008256402697387     0.008732163361167    -0.014804954957193
    -0.018195145236088     0.002730968593892    -0.006553848328224
   3  26
    -0.061337352831000     0.001207035410426    -0.028562809531676
     0.039509153287421    -0.079975693444831    -0.031493237829670
     0.084941934766705    -0.019951490854571    -0.021020480196261
   3  27
    -0.061337352831000    -0.001207035410426     0.028562809531676
    -0.039509153287421    -0.079975693444831    -0.031493237829670
    -0.084941934766705    -0.019951490854571    -0.021020480196261
   3  28
     0.013034538733688     0.018837177139896     0.009483555020915
    -0.008256402697387     0.008732163361167    -0.014804954957193
     0.018195145236088     0.002730968593892    -0.006553848328224
   3  29
    -0.074689247521594     0.008007115081678     0.086428324286596
     0.053235988959603    -0.086677890329960    -0.003123564275795
    -0.035310286759658     0.001019573515814    -0.018115663154709
   3  30
    -4.264484721209211     2.928013711563434    -1.512635533347370
     3.046028485068923    -4.632993840594885     1.759295155055806
    -1.512297227195014     1.690564819042548    -2.517149887555126
   3  31
    -4.264484721209212    -2.928013711563435     1.512635533347370
    -3.046028485068924    -4.632993840594886     1.759295155055806
     1.512297227195015     1.690564819042550    -2.517149887555127
   3  32
    -0.074689247521594    -0.008007115081678    -0.086428324286596
    -0.053235988959603    -0.086677890329960    -0.003123564275795
     0.035310286759658     0.001019573515814    -0.018115663154709
   3  33
     0.012071900924519    -0.000000000000000    -0.000000000000000
     0.000000000000000     0.013486511364280    -0.003353786816178
    -0.000000000000000    -0.024557283974769     0.003648435915276
   3  34
    -0.042685020712307    -0.047588440940051     0.273168715916830
    -0.183689237104521    -0.223101446010110     0.105018138055198
     0.274192938129417     0.027452575073983     0.274298616552223
   3  35
    -1.645957002866645    -0.000000000000001     0.000000000000001
    -0.000000000000000    -4.631776414677160     3.517434798252871
     0.000000000000000     3.383351564135327    -5.135484334619547
   3  36
    -0.042685020712307     0.047588440940051    -0.273168715916830
     0.183689237104521    -0.223101446010110     0.105018138055198
    -0.274192938129416     0.027452575073983     0.274298616552223
   3  37
     0.017293966126054    -0.000000000000000    -0.000000000000000
     0.000000000000000    -0.010496062315304     0.002757130805644
    -0.000000000000000    -0.006858678483025     0.008614428730112
   3  38
    -0.008452083710126    -0.012101290509480    -0.068214515711930
    -0.028237535917463    -0.086256060070191    -0.047244826162397
     0.056425431007898    -0.005163656118340    -0.083739879917987
   3  39
     0.431372078353073    -0.000000000000000    -0.000000000000000
     0.000000000000000    -0.226916981360929    -0.212790148281356
    -0.000000000000000    -0.047875004702866    -0.193685031835136
   3  40
    -0.008452083710126     0.012101290509480     0.068214515711930
     0.028237535917463    -0.086256060070191    -0.047244826162397
    -0.056425431007898    -0.005163656118340    -0.083739879917987
   3  41
     0.013034538733688     0.018837177139896    -0.009483555020915
    -0.008256402697387     0.008732163361167     0.014804954957193
    -0.018195145236088    -0.002730968593892    -0.006553848328224
   3  42
    -0.061337352831000    -0.001207035410426    -0.028562809531676
    -0.039509153287421    -0.079975693444831     0.031493237829670
     0.084941934766705     0.019951490854571    -0.021020480196261
   3  43
    -0.061337352830999     0.001207035410426     0.028562809531676
     0.039509153287421    -0.079975693444831     0.031493237829670
    -0.084941934766705     0.019951490854571    -0.021020480196261
   3  44
     0.013034538733688    -0.018837177139896     0.009483555020915
     0.008256402697387     0.008732163361167     0.014804954957193
     0.018195145236088    -0.002730968593892    -0.006553848328224
   3  45
    -0.074689247521594    -0.008007115081678     0.086428324286596
    -0.053235988959603    -0.086677890329960     0.003123564275795
    -0.035310286759657    -0.001019573515814    -0.018115663154709
   3  46
    -4.264484721209212    -2.928013711563435    -1.512635533347370
    -3.046028485068923    -4.632993840594884    -1.759295155055805
    -1.512297227195011    -1.690564819042544    -2.517149887555124
   3  47
    -4.264484721209212     2.928013711563434     1.512635533347370
     3.046028485068922    -4.632993840594884    -1.759295155055804